[Molden Format]
[GEOMETRIES] (XYZ)
2
1.0
C 0.0 0.0 0.0
O 0.0 0.0 1.2
5
2.0
C 0.0 0.0 0.0
O 0.0 0.0 1.2
H 1.0 0.0 0.0
H 0.0 1.0 0.0
H 0.0 0.0 2.0
